MS-UCG TEST

               3  atoms

               2  atom types

        0.000000        32.000000  xlo xhi
        0.000000        32.000000  ylo yhi
        0.000000        32.000000  zlo zhi

Masses

       1      15.0
       2      15.0

Pair Coeffs

       1    0.16  4.0   2
       2    0.04  4.4   0

Atoms

1 1 10.000000 0.000000 0.000000 
2 1 15.000000 0.000000 0.000000
3 1 5.000000 0.000000 0.000000

